# ── COG$ Australia — Cache Control ──
# Forces browsers to always fetch the latest version

<IfModule mod_headers.c>
    # HTML pages — never cache, always revalidate
    <FilesMatch "\.(html|htm)$">
        Header set Cache-Control "no-cache, no-store, must-revalidate"
        Header set Pragma "no-cache"
        Header set Expires "0"
    </FilesMatch>

    # JS files — revalidate on every visit
    <FilesMatch "\.(js)$">
        Header set Cache-Control "no-cache, must-revalidate"
    </FilesMatch>

    # CSS — revalidate on every visit
    <FilesMatch "\.(css)$">
        Header set Cache-Control "no-cache, must-revalidate"
    </FilesMatch>

    # Images & fonts — cache for 7 days (they change rarely)
    <FilesMatch "\.(png|jpg|jpeg|gif|webp|svg|ico|woff|woff2|ttf)$">
        Header set Cache-Control "public, max-age=604800"
    </FilesMatch>
</IfModule>

# Fallback using mod_expires
<IfModule mod_expires.c>
    ExpiresActive On
    ExpiresByType text/html "access plus 0 seconds"
    ExpiresByType application/javascript "access plus 0 seconds"
    ExpiresByType text/css "access plus 0 seconds"
    ExpiresByType image/png "access plus 7 days"
    ExpiresByType image/jpeg "access plus 7 days"
    ExpiresByType image/gif "access plus 7 days"
</IfModule>
